# vtk DataFile Version 2.0
ToPy data, created 2013-04-27 21:51:00
ASCII
DATASET UNSTRUCTURED_GRID
POINTS 192 float
-0.5 -0.5 -0.5
0.5 -0.5 -0.5
-0.5 0.5 -0.5
0.5 0.5 -0.5
-0.5 -0.5 0.5
0.5 -0.5 0.5
-0.5 0.5 0.5
0.5 0.5 0.5
-0.5 -0.5 0.5
0.5 -0.5 0.5
-0.5 0.5 0.5
0.5 0.5 0.5
-0.5 -0.5 1.5
0.5 -0.5 1.5
-0.5 0.5 1.5
0.5 0.5 1.5
-0.5 -0.5 1.5
0.5 -0.5 1.5
-0.5 0.5 1.5
0.5 0.5 1.5
-0.5 -0.5 2.5
0.5 -0.5 2.5
-0.5 0.5 2.5
0.5 0.5 2.5
-0.5 -0.5 2.5
0.5 -0.5 2.5
-0.5 0.5 2.5
0.5 0.5 2.5
-0.5 -0.5 3.5
0.5 -0.5 3.5
-0.5 0.5 3.5
0.5 0.5 3.5
-0.5 0.5 -0.5
0.5 0.5 -0.5
-0.5 1.5 -0.5
0.5 1.5 -0.5
-0.5 0.5 0.5
0.5 0.5 0.5
-0.5 1.5 0.5
0.5 1.5 0.5
-0.5 0.5 0.5
0.5 0.5 0.5
-0.5 1.5 0.5
0.5 1.5 0.5
-0.5 0.5 1.5
0.5 0.5 1.5
-0.5 1.5 1.5
0.5 1.5 1.5
-0.5 0.5 1.5
0.5 0.5 1.5
-0.5 1.5 1.5
0.5 1.5 1.5
-0.5 0.5 2.5
0.5 0.5 2.5
-0.5 1.5 2.5
0.5 1.5 2.5
-0.5 0.5 2.5
0.5 0.5 2.5
-0.5 1.5 2.5
0.5 1.5 2.5
-0.5 0.5 3.5
0.5 0.5 3.5
-0.5 1.5 3.5
0.5 1.5 3.5
-0.5 1.5 -0.5
0.5 1.5 -0.5
-0.5 2.5 -0.5
0.5 2.5 -0.5
-0.5 1.5 0.5
0.5 1.5 0.5
-0.5 2.5 0.5
0.5 2.5 0.5
-0.5 1.5 0.5
0.5 1.5 0.5
-0.5 2.5 0.5
0.5 2.5 0.5
-0.5 1.5 1.5
0.5 1.5 1.5
-0.5 2.5 1.5
0.5 2.5 1.5
-0.5 1.5 1.5
0.5 1.5 1.5
-0.5 2.5 1.5
0.5 2.5 1.5
-0.5 1.5 2.5
0.5 1.5 2.5
-0.5 2.5 2.5
0.5 2.5 2.5
-0.5 1.5 2.5
0.5 1.5 2.5
-0.5 2.5 2.5
0.5 2.5 2.5
-0.5 1.5 3.5
0.5 1.5 3.5
-0.5 2.5 3.5
0.5 2.5 3.5
0.5 -0.5 -0.5
1.5 -0.5 -0.5
0.5 0.5 -0.5
1.5 0.5 -0.5
0.5 -0.5 0.5
1.5 -0.5 0.5
0.5 0.5 0.5
1.5 0.5 0.5
0.5 -0.5 0.5
1.5 -0.5 0.5
0.5 0.5 0.5
1.5 0.5 0.5
0.5 -0.5 1.5
1.5 -0.5 1.5
0.5 0.5 1.5
1.5 0.5 1.5
0.5 -0.5 1.5
1.5 -0.5 1.5
0.5 0.5 1.5
1.5 0.5 1.5
0.5 -0.5 2.5
1.5 -0.5 2.5
0.5 0.5 2.5
1.5 0.5 2.5
0.5 -0.5 2.5
1.5 -0.5 2.5
0.5 0.5 2.5
1.5 0.5 2.5
0.5 -0.5 3.5
1.5 -0.5 3.5
0.5 0.5 3.5
1.5 0.5 3.5
0.5 0.5 -0.5
1.5 0.5 -0.5
0.5 1.5 -0.5
1.5 1.5 -0.5
0.5 0.5 0.5
1.5 0.5 0.5
0.5 1.5 0.5
1.5 1.5 0.5
0.5 0.5 0.5
1.5 0.5 0.5
0.5 1.5 0.5
1.5 1.5 0.5
0.5 0.5 1.5
1.5 0.5 1.5
0.5 1.5 1.5
1.5 1.5 1.5
0.5 0.5 1.5
1.5 0.5 1.5
0.5 1.5 1.5
1.5 1.5 1.5
0.5 0.5 2.5
1.5 0.5 2.5
0.5 1.5 2.5
1.5 1.5 2.5
0.5 0.5 2.5
1.5 0.5 2.5
0.5 1.5 2.5
1.5 1.5 2.5
0.5 0.5 3.5
1.5 0.5 3.5
0.5 1.5 3.5
1.5 1.5 3.5
0.5 1.5 -0.5
1.5 1.5 -0.5
0.5 2.5 -0.5
1.5 2.5 -0.5
0.5 1.5 0.5
1.5 1.5 0.5
0.5 2.5 0.5
1.5 2.5 0.5
0.5 1.5 0.5
1.5 1.5 0.5
0.5 2.5 0.5
1.5 2.5 0.5
0.5 1.5 1.5
1.5 1.5 1.5
0.5 2.5 1.5
1.5 2.5 1.5
0.5 1.5 1.5
1.5 1.5 1.5
0.5 2.5 1.5
1.5 2.5 1.5
0.5 1.5 2.5
1.5 1.5 2.5
0.5 2.5 2.5
1.5 2.5 2.5
0.5 1.5 2.5
1.5 1.5 2.5
0.5 2.5 2.5
1.5 2.5 2.5
0.5 1.5 3.5
1.5 1.5 3.5
0.5 2.5 3.5
1.5 2.5 3.5
CELLS 24 216
8 0 1 2 3 4 5 6 7
8 8 9 10 11 12 13 14 15
8 16 17 18 19 20 21 22 23
8 24 25 26 27 28 29 30 31
8 32 33 34 35 36 37 38 39
8 40 41 42 43 44 45 46 47
8 48 49 50 51 52 53 54 55
8 56 57 58 59 60 61 62 63
8 64 65 66 67 68 69 70 71
8 72 73 74 75 76 77 78 79
8 80 81 82 83 84 85 86 87
8 88 89 90 91 92 93 94 95
8 96 97 98 99 100 101 102 103
8 104 105 106 107 108 109 110 111
8 112 113 114 115 116 117 118 119
8 120 121 122 123 124 125 126 127
8 128 129 130 131 132 133 134 135
8 136 137 138 139 140 141 142 143
8 144 145 146 147 148 149 150 151
8 152 153 154 155 156 157 158 159
8 160 161 162 163 164 165 166 167
8 168 169 170 171 172 173 174 175
8 176 177 178 179 180 181 182 183
8 184 185 186 187 188 189 190 191
CELL_TYPES 24
11 11 11 11 11 11 11 11 11 11 11 11 11 11 11 11 11 11 11 11 11 11 11 11
CELL_DATA 24
SCALARS Densities double 1
LOOKUP_TABLE default
0.26623557401 0.207016072745 0.0634357613605 0.00248575240235 0.0187999651771 0.0634020495383 0.204933855521 0.111365418945 0.196858710783 0.178653793079 0.189114613562 0.297698441827 0.26623557026 0.207016070338 0.0634357607609 0.00248575237733 0.0187999648239 0.0634020487741 0.204933853967 0.111365418154 0.196858708174 0.178653790952 0.189114611884 0.297698440015