# vtk DataFile Version 2.0
ToPy data, created 2013-04-27 21:51:00
ASCII
DATASET UNSTRUCTURED_GRID
POINTS 112 float
-0.5 -0.5 -0.5
0.5 -0.5 -0.5
-0.5 0.5 -0.5
0.5 0.5 -0.5
-0.5 -0.5 0.5
0.5 -0.5 0.5
-0.5 0.5 0.5
0.5 0.5 0.5
-0.5 -0.5 0.5
0.5 -0.5 0.5
-0.5 0.5 0.5
0.5 0.5 0.5
-0.5 -0.5 1.5
0.5 -0.5 1.5
-0.5 0.5 1.5
0.5 0.5 1.5
-0.5 0.5 1.5
0.5 0.5 1.5
-0.5 1.5 1.5
0.5 1.5 1.5
-0.5 0.5 2.5
0.5 0.5 2.5
-0.5 1.5 2.5
0.5 1.5 2.5
-0.5 1.5 -0.5
0.5 1.5 -0.5
-0.5 2.5 -0.5
0.5 2.5 -0.5
-0.5 1.5 0.5
0.5 1.5 0.5
-0.5 2.5 0.5
0.5 2.5 0.5
-0.5 1.5 0.5
0.5 1.5 0.5
-0.5 2.5 0.5
0.5 2.5 0.5
-0.5 1.5 1.5
0.5 1.5 1.5
-0.5 2.5 1.5
0.5 2.5 1.5
-0.5 1.5 1.5
0.5 1.5 1.5
-0.5 2.5 1.5
0.5 2.5 1.5
-0.5 1.5 2.5
0.5 1.5 2.5
-0.5 2.5 2.5
0.5 2.5 2.5
-0.5 1.5 2.5
0.5 1.5 2.5
-0.5 2.5 2.5
0.5 2.5 2.5
-0.5 1.5 3.5
0.5 1.5 3.5
-0.5 2.5 3.5
0.5 2.5 3.5
0.5 -0.5 -0.5
1.5 -0.5 -0.5
0.5 0.5 -0.5
1.5 0.5 -0.5
0.5 -0.5 0.5
1.5 -0.5 0.5
0.5 0.5 0.5
1.5 0.5 0.5
0.5 -0.5 0.5
1.5 -0.5 0.5
0.5 0.5 0.5
1.5 0.5 0.5
0.5 -0.5 1.5
1.5 -0.5 1.5
0.5 0.5 1.5
1.5 0.5 1.5
0.5 0.5 1.5
1.5 0.5 1.5
0.5 1.5 1.5
1.5 1.5 1.5
0.5 0.5 2.5
1.5 0.5 2.5
0.5 1.5 2.5
1.5 1.5 2.5
0.5 1.5 -0.5
1.5 1.5 -0.5
0.5 2.5 -0.5
1.5 2.5 -0.5
0.5 1.5 0.5
1.5 1.5 0.5
0.5 2.5 0.5
1.5 2.5 0.5
0.5 1.5 0.5
1.5 1.5 0.5
0.5 2.5 0.5
1.5 2.5 0.5
0.5 1.5 1.5
1.5 1.5 1.5
0.5 2.5 1.5
1.5 2.5 1.5
0.5 1.5 1.5
1.5 1.5 1.5
0.5 2.5 1.5
1.5 2.5 1.5
0.5 1.5 2.5
1.5 1.5 2.5
0.5 2.5 2.5
1.5 2.5 2.5
0.5 1.5 2.5
1.5 1.5 2.5
0.5 2.5 2.5
1.5 2.5 2.5
0.5 1.5 3.5
1.5 1.5 3.5
0.5 2.5 3.5
1.5 2.5 3.5
CELLS 14 126
8 0 1 2 3 4 5 6 7
8 8 9 10 11 12 13 14 15
8 16 17 18 19 20 21 22 23
8 24 25 26 27 28 29 30 31
8 32 33 34 35 36 37 38 39
8 40 41 42 43 44 45 46 47
8 48 49 50 51 52 53 54 55
8 56 57 58 59 60 61 62 63
8 64 65 66 67 68 69 70 71
8 72 73 74 75 76 77 78 79
8 80 81 82 83 84 85 86 87
8 88 89 90 91 92 93 94 95
8 96 97 98 99 100 101 102 103
8 104 105 106 107 108 109 110 111
CELL_TYPES 14
11 11 11 11 11 11 11 11 11 11 11 11 11 11
CELL_DATA 14
SCALARS Densities double 1
LOOKUP_TABLE default
0.364907394257 0.210203322607 0.208526675498 0.16404368135 0.139082299906 0.414163318127 0.304246472954 0.360444346701 0.207939252143 0.206618997044 0.161512067014 0.137198859064 0.409180163034 0.301933116372