# vtk DataFile Version 2.0
ToPy data, created 2013-04-27 21:50:46
ASCII
DATASET UNSTRUCTURED_GRID
POINTS 160 float
-0.5 -0.5 -0.5
0.5 -0.5 -0.5
-0.5 0.5 -0.5
0.5 0.5 -0.5
-0.5 -0.5 0.5
0.5 -0.5 0.5
-0.5 0.5 0.5
0.5 0.5 0.5
-0.5 -0.5 0.5
0.5 -0.5 0.5
-0.5 0.5 0.5
0.5 0.5 0.5
-0.5 -0.5 1.5
0.5 -0.5 1.5
-0.5 0.5 1.5
0.5 0.5 1.5
-0.5 -0.5 1.5
0.5 -0.5 1.5
-0.5 0.5 1.5
0.5 0.5 1.5
-0.5 -0.5 2.5
0.5 -0.5 2.5
-0.5 0.5 2.5
0.5 0.5 2.5
-0.5 0.5 0.5
0.5 0.5 0.5
-0.5 1.5 0.5
0.5 1.5 0.5
-0.5 0.5 1.5
0.5 0.5 1.5
-0.5 1.5 1.5
0.5 1.5 1.5
-0.5 0.5 1.5
0.5 0.5 1.5
-0.5 1.5 1.5
0.5 1.5 1.5
-0.5 0.5 2.5
0.5 0.5 2.5
-0.5 1.5 2.5
0.5 1.5 2.5
-0.5 0.5 2.5
0.5 0.5 2.5
-0.5 1.5 2.5
0.5 1.5 2.5
-0.5 0.5 3.5
0.5 0.5 3.5
-0.5 1.5 3.5
0.5 1.5 3.5
-0.5 1.5 -0.5
0.5 1.5 -0.5
-0.5 2.5 -0.5
0.5 2.5 -0.5
-0.5 1.5 0.5
0.5 1.5 0.5
-0.5 2.5 0.5
0.5 2.5 0.5
-0.5 1.5 0.5
0.5 1.5 0.5
-0.5 2.5 0.5
0.5 2.5 0.5
-0.5 1.5 1.5
0.5 1.5 1.5
-0.5 2.5 1.5
0.5 2.5 1.5
-0.5 1.5 1.5
0.5 1.5 1.5
-0.5 2.5 1.5
0.5 2.5 1.5
-0.5 1.5 2.5
0.5 1.5 2.5
-0.5 2.5 2.5
0.5 2.5 2.5
-0.5 1.5 2.5
0.5 1.5 2.5
-0.5 2.5 2.5
0.5 2.5 2.5
-0.5 1.5 3.5
0.5 1.5 3.5
-0.5 2.5 3.5
0.5 2.5 3.5
0.5 -0.5 -0.5
1.5 -0.5 -0.5
0.5 0.5 -0.5
1.5 0.5 -0.5
0.5 -0.5 0.5
1.5 -0.5 0.5
0.5 0.5 0.5
1.5 0.5 0.5
0.5 -0.5 0.5
1.5 -0.5 0.5
0.5 0.5 0.5
1.5 0.5 0.5
0.5 -0.5 1.5
1.5 -0.5 1.5
0.5 0.5 1.5
1.5 0.5 1.5
0.5 -0.5 1.5
1.5 -0.5 1.5
0.5 0.5 1.5
1.5 0.5 1.5
0.5 -0.5 2.5
1.5 -0.5 2.5
0.5 0.5 2.5
1.5 0.5 2.5
0.5 0.5 0.5
1.5 0.5 0.5
0.5 1.5 0.5
1.5 1.5 0.5
0.5 0.5 1.5
1.5 0.5 1.5
0.5 1.5 1.5
1.5 1.5 1.5
0.5 0.5 1.5
1.5 0.5 1.5
0.5 1.5 1.5
1.5 1.5 1.5
0.5 0.5 2.5
1.5 0.5 2.5
0.5 1.5 2.5
1.5 1.5 2.5
0.5 0.5 2.5
1.5 0.5 2.5
0.5 1.5 2.5
1.5 1.5 2.5
0.5 0.5 3.5
1.5 0.5 3.5
0.5 1.5 3.5
1.5 1.5 3.5
0.5 1.5 -0.5
1.5 1.5 -0.5
0.5 2.5 -0.5
1.5 2.5 -0.5
0.5 1.5 0.5
1.5 1.5 0.5
0.5 2.5 0.5
1.5 2.5 0.5
0.5 1.5 0.5
1.5 1.5 0.5
0.5 2.5 0.5
1.5 2.5 0.5
0.5 1.5 1.5
1.5 1.5 1.5
0.5 2.5 1.5
1.5 2.5 1.5
0.5 1.5 1.5
1.5 1.5 1.5
0.5 2.5 1.5
1.5 2.5 1.5
0.5 1.5 2.5
1.5 1.5 2.5
0.5 2.5 2.5
1.5 2.5 2.5
0.5 1.5 2.5
1.5 1.5 2.5
0.5 2.5 2.5
1.5 2.5 2.5
0.5 1.5 3.5
1.5 1.5 3.5
0.5 2.5 3.5
1.5 2.5 3.5
CELLS 20 180
8 0 1 2 3 4 5 6 7
8 8 9 10 11 12 13 14 15
8 16 17 18 19 20 21 22 23
8 24 25 26 27 28 29 30 31
8 32 33 34 35 36 37 38 39
8 40 41 42 43 44 45 46 47
8 48 49 50 51 52 53 54 55
8 56 57 58 59 60 61 62 63
8 64 65 66 67 68 69 70 71
8 72 73 74 75 76 77 78 79
8 80 81 82 83 84 85 86 87
8 88 89 90 91 92 93 94 95
8 96 97 98 99 100 101 102 103
8 104 105 106 107 108 109 110 111
8 112 113 114 115 116 117 118 119
8 120 121 122 123 124 125 126 127
8 128 129 130 131 132 133 134 135
8 136 137 138 139 140 141 142 143
8 144 145 146 147 148 149 150 151
8 152 153 154 155 156 157 158 159
CELL_TYPES 20
11 11 11 11 11 11 11 11 11 11 11 11 11 11 11 11 11 11 11 11
CELL_DATA 20
SCALARS Densities double 1
LOOKUP_TABLE default
0.345437138061 0.232749923999 0.00135372188324 0.00415306550649 0.241205190314 0.0050162306009 0.183354270321 0.174020797792 0.266273914455 0.344436566358 0.345436789319 0.232749713138 0.00135372057153 0.00415306070516 0.241205017307 0.00501622652694 0.183354045168 0.174020604438 0.266273677519 0.344436352095