# vtk DataFile Version 2.0
ToPy data, created 2013-04-27 21:50:45
ASCII
DATASET UNSTRUCTURED_GRID
POINTS 176 float
-0.5 -0.5 -0.5
0.5 -0.5 -0.5
-0.5 0.5 -0.5
0.5 0.5 -0.5
-0.5 -0.5 0.5
0.5 -0.5 0.5
-0.5 0.5 0.5
0.5 0.5 0.5
-0.5 -0.5 0.5
0.5 -0.5 0.5
-0.5 0.5 0.5
0.5 0.5 0.5
-0.5 -0.5 1.5
0.5 -0.5 1.5
-0.5 0.5 1.5
0.5 0.5 1.5
-0.5 -0.5 1.5
0.5 -0.5 1.5
-0.5 0.5 1.5
0.5 0.5 1.5
-0.5 -0.5 2.5
0.5 -0.5 2.5
-0.5 0.5 2.5
0.5 0.5 2.5
-0.5 0.5 -0.5
0.5 0.5 -0.5
-0.5 1.5 -0.5
0.5 1.5 -0.5
-0.5 0.5 0.5
0.5 0.5 0.5
-0.5 1.5 0.5
0.5 1.5 0.5
-0.5 0.5 0.5
0.5 0.5 0.5
-0.5 1.5 0.5
0.5 1.5 0.5
-0.5 0.5 1.5
0.5 0.5 1.5
-0.5 1.5 1.5
0.5 1.5 1.5
-0.5 0.5 1.5
0.5 0.5 1.5
-0.5 1.5 1.5
0.5 1.5 1.5
-0.5 0.5 2.5
0.5 0.5 2.5
-0.5 1.5 2.5
0.5 1.5 2.5
-0.5 0.5 2.5
0.5 0.5 2.5
-0.5 1.5 2.5
0.5 1.5 2.5
-0.5 0.5 3.5
0.5 0.5 3.5
-0.5 1.5 3.5
0.5 1.5 3.5
-0.5 1.5 -0.5
0.5 1.5 -0.5
-0.5 2.5 -0.5
0.5 2.5 -0.5
-0.5 1.5 0.5
0.5 1.5 0.5
-0.5 2.5 0.5
0.5 2.5 0.5
-0.5 1.5 0.5
0.5 1.5 0.5
-0.5 2.5 0.5
0.5 2.5 0.5
-0.5 1.5 1.5
0.5 1.5 1.5
-0.5 2.5 1.5
0.5 2.5 1.5
-0.5 1.5 1.5
0.5 1.5 1.5
-0.5 2.5 1.5
0.5 2.5 1.5
-0.5 1.5 2.5
0.5 1.5 2.5
-0.5 2.5 2.5
0.5 2.5 2.5
-0.5 1.5 2.5
0.5 1.5 2.5
-0.5 2.5 2.5
0.5 2.5 2.5
-0.5 1.5 3.5
0.5 1.5 3.5
-0.5 2.5 3.5
0.5 2.5 3.5
0.5 -0.5 -0.5
1.5 -0.5 -0.5
0.5 0.5 -0.5
1.5 0.5 -0.5
0.5 -0.5 0.5
1.5 -0.5 0.5
0.5 0.5 0.5
1.5 0.5 0.5
0.5 -0.5 0.5
1.5 -0.5 0.5
0.5 0.5 0.5
1.5 0.5 0.5
0.5 -0.5 1.5
1.5 -0.5 1.5
0.5 0.5 1.5
1.5 0.5 1.5
0.5 -0.5 1.5
1.5 -0.5 1.5
0.5 0.5 1.5
1.5 0.5 1.5
0.5 -0.5 2.5
1.5 -0.5 2.5
0.5 0.5 2.5
1.5 0.5 2.5
0.5 0.5 -0.5
1.5 0.5 -0.5
0.5 1.5 -0.5
1.5 1.5 -0.5
0.5 0.5 0.5
1.5 0.5 0.5
0.5 1.5 0.5
1.5 1.5 0.5
0.5 0.5 0.5
1.5 0.5 0.5
0.5 1.5 0.5
1.5 1.5 0.5
0.5 0.5 1.5
1.5 0.5 1.5
0.5 1.5 1.5
1.5 1.5 1.5
0.5 0.5 1.5
1.5 0.5 1.5
0.5 1.5 1.5
1.5 1.5 1.5
0.5 0.5 2.5
1.5 0.5 2.5
0.5 1.5 2.5
1.5 1.5 2.5
0.5 0.5 2.5
1.5 0.5 2.5
0.5 1.5 2.5
1.5 1.5 2.5
0.5 0.5 3.5
1.5 0.5 3.5
0.5 1.5 3.5
1.5 1.5 3.5
0.5 1.5 -0.5
1.5 1.5 -0.5
0.5 2.5 -0.5
1.5 2.5 -0.5
0.5 1.5 0.5
1.5 1.5 0.5
0.5 2.5 0.5
1.5 2.5 0.5
0.5 1.5 0.5
1.5 1.5 0.5
0.5 2.5 0.5
1.5 2.5 0.5
0.5 1.5 1.5
1.5 1.5 1.5
0.5 2.5 1.5
1.5 2.5 1.5
0.5 1.5 1.5
1.5 1.5 1.5
0.5 2.5 1.5
1.5 2.5 1.5
0.5 1.5 2.5
1.5 1.5 2.5
0.5 2.5 2.5
1.5 2.5 2.5
0.5 1.5 2.5
1.5 1.5 2.5
0.5 2.5 2.5
1.5 2.5 2.5
0.5 1.5 3.5
1.5 1.5 3.5
0.5 2.5 3.5
1.5 2.5 3.5
CELLS 22 198
8 0 1 2 3 4 5 6 7
8 8 9 10 11 12 13 14 15
8 16 17 18 19 20 21 22 23
8 24 25 26 27 28 29 30 31
8 32 33 34 35 36 37 38 39
8 40 41 42 43 44 45 46 47
8 48 49 50 51 52 53 54 55
8 56 57 58 59 60 61 62 63
8 64 65 66 67 68 69 70 71
8 72 73 74 75 76 77 78 79
8 80 81 82 83 84 85 86 87
8 88 89 90 91 92 93 94 95
8 96 97 98 99 100 101 102 103
8 104 105 106 107 108 109 110 111
8 112 113 114 115 116 117 118 119
8 120 121 122 123 124 125 126 127
8 128 129 130 131 132 133 134 135
8 136 137 138 139 140 141 142 143
8 144 145 146 147 148 149 150 151
8 152 153 154 155 156 157 158 159
8 160 161 162 163 164 165 166 167
8 168 169 170 171 172 173 174 175
CELL_TYPES 22
11 11 11 11 11 11 11 11 11 11 11 11 11 11 11 11 11 11 11 11 11 11
CELL_DATA 22
SCALARS Densities double 1
LOOKUP_TABLE default
0.296742742593 0.221431821587 0.0299366934864 0.00614406050296 0.037184488906 0.227476276698 0.0730858795498 0.190341115024 0.178725854219 0.21552289177 0.322408200818 0.296742727804 0.221431811931 0.0299366922382 0.00614406006042 0.0371844870147 0.227476269541 0.0730858773177 0.190341104676 0.178725845427 0.215522883628 0.322408192367