# vtk DataFile Version 2.0
ToPy data, created 2013-04-27 21:50:46
ASCII
DATASET UNSTRUCTURED_GRID
POINTS 112 float
-0.5 -0.5 -0.5
0.5 -0.5 -0.5
-0.5 0.5 -0.5
0.5 0.5 -0.5
-0.5 -0.5 0.5
0.5 -0.5 0.5
-0.5 0.5 0.5
0.5 0.5 0.5
-0.5 -0.5 0.5
0.5 -0.5 0.5
-0.5 0.5 0.5
0.5 0.5 0.5
-0.5 -0.5 1.5
0.5 -0.5 1.5
-0.5 0.5 1.5
0.5 0.5 1.5
-0.5 0.5 1.5
0.5 0.5 1.5
-0.5 1.5 1.5
0.5 1.5 1.5
-0.5 0.5 2.5
0.5 0.5 2.5
-0.5 1.5 2.5
0.5 1.5 2.5
-0.5 1.5 -0.5
0.5 1.5 -0.5
-0.5 2.5 -0.5
0.5 2.5 -0.5
-0.5 1.5 0.5
0.5 1.5 0.5
-0.5 2.5 0.5
0.5 2.5 0.5
-0.5 1.5 0.5
0.5 1.5 0.5
-0.5 2.5 0.5
0.5 2.5 0.5
-0.5 1.5 1.5
0.5 1.5 1.5
-0.5 2.5 1.5
0.5 2.5 1.5
-0.5 1.5 1.5
0.5 1.5 1.5
-0.5 2.5 1.5
0.5 2.5 1.5
-0.5 1.5 2.5
0.5 1.5 2.5
-0.5 2.5 2.5
0.5 2.5 2.5
-0.5 1.5 2.5
0.5 1.5 2.5
-0.5 2.5 2.5
0.5 2.5 2.5
-0.5 1.5 3.5
0.5 1.5 3.5
-0.5 2.5 3.5
0.5 2.5 3.5
0.5 -0.5 -0.5
1.5 -0.5 -0.5
0.5 0.5 -0.5
1.5 0.5 -0.5
0.5 -0.5 0.5
1.5 -0.5 0.5
0.5 0.5 0.5
1.5 0.5 0.5
0.5 -0.5 0.5
1.5 -0.5 0.5
0.5 0.5 0.5
1.5 0.5 0.5
0.5 -0.5 1.5
1.5 -0.5 1.5
0.5 0.5 1.5
1.5 0.5 1.5
0.5 0.5 1.5
1.5 0.5 1.5
0.5 1.5 1.5
1.5 1.5 1.5
0.5 0.5 2.5
1.5 0.5 2.5
0.5 1.5 2.5
1.5 1.5 2.5
0.5 1.5 -0.5
1.5 1.5 -0.5
0.5 2.5 -0.5
1.5 2.5 -0.5
0.5 1.5 0.5
1.5 1.5 0.5
0.5 2.5 0.5
1.5 2.5 0.5
0.5 1.5 0.5
1.5 1.5 0.5
0.5 2.5 0.5
1.5 2.5 0.5
0.5 1.5 1.5
1.5 1.5 1.5
0.5 2.5 1.5
1.5 2.5 1.5
0.5 1.5 1.5
1.5 1.5 1.5
0.5 2.5 1.5
1.5 2.5 1.5
0.5 1.5 2.5
1.5 1.5 2.5
0.5 2.5 2.5
1.5 2.5 2.5
0.5 1.5 2.5
1.5 1.5 2.5
0.5 2.5 2.5
1.5 2.5 2.5
0.5 1.5 3.5
1.5 1.5 3.5
0.5 2.5 3.5
1.5 2.5 3.5
CELLS 14 126
8 0 1 2 3 4 5 6 7
8 8 9 10 11 12 13 14 15
8 16 17 18 19 20 21 22 23
8 24 25 26 27 28 29 30 31
8 32 33 34 35 36 37 38 39
8 40 41 42 43 44 45 46 47
8 48 49 50 51 52 53 54 55
8 56 57 58 59 60 61 62 63
8 64 65 66 67 68 69 70 71
8 72 73 74 75 76 77 78 79
8 80 81 82 83 84 85 86 87
8 88 89 90 91 92 93 94 95
8 96 97 98 99 100 101 102 103
8 104 105 106 107 108 109 110 111
CELL_TYPES 14
11 11 11 11 11 11 11 11 11 11 11 11 11 11
CELL_DATA 14
SCALARS Densities double 1
LOOKUP_TABLE default
0.364262884872 0.226682625445 0.230470252588 0.175502365101 0.159493051255 0.303150028596 0.335507016456 0.364232410096 0.226665710942 0.230456059914 0.175483971308 0.159478126326 0.303126155593 0.335489299452